+ 0.0437942 /NodeList/2/DeviceList/1/$ns3::PointToPointNetDevice/TxQueue/Enqueue ns3::PppHeader (Point-to-Point Protocol: IP (0x0021)) ns3::Ipv4Header (tos 0x0 DSCP Default ECN Not-ECT ttl 1 id 0 protocol 17 offset (bytes) 0 flags [none] length: 64 10.1.2.2 > 10.1.2.255) ns3::UdpHeader (length: 44 698 > 698) ns3::olsr::PacketHeader (len: 36 seqNo: 0) ns3::olsr::MessageHeader (type: HELLO TTL: 1 Orig: 10.1.2.2 SeqNo: 0 Validity: 134 Hop count: 0 Size: 16 Interval: 5 (2s) Willingness: DEFAULT) ns3::olsr::MessageHeader (type: MID TTL: 255 Orig: 10.1.2.2 SeqNo: 1 Validity: 231 Hop count: 0 Size: 16 [10.1.6.1])
- 0.0437942 /NodeList/2/DeviceList/1/$ns3::PointToPointNetDevice/TxQueue/Dequeue ns3::PppHeader (Point-to-Point Protocol: IP (0x0021)) ns3::Ipv4Header (tos 0x0 DSCP Default ECN Not-ECT ttl 1 id 0 protocol 17 offset (bytes) 0 flags [none] length: 64 10.1.2.2 > 10.1.2.255) ns3::UdpHeader (length: 44 698 > 698) ns3::olsr::PacketHeader (len: 36 seqNo: 0) ns3::olsr::MessageHeader (type: HELLO TTL: 1 Orig: 10.1.2.2 SeqNo: 0 Validity: 134 Hop count: 0 Size: 16 Interval: 5 (2s) Willingness: DEFAULT) ns3::olsr::MessageHeader (type: MID TTL: 255 Orig: 10.1.2.2 SeqNo: 1 Validity: 231 Hop count: 0 Size: 16 [10.1.6.1])
+ 0.0437942 /NodeList/2/DeviceList/2/$ns3::PointToPointNetDevice/TxQueue/Enqueue ns3::PppHeader (Point-to-Point Protocol: IP (0x0021)) ns3::Ipv4Header (tos 0x0 DSCP Default ECN Not-ECT ttl 1 id 0 protocol 17 offset (bytes) 0 flags [none] length: 64 10.1.6.1 > 10.1.6.255) ns3::UdpHeader (length: 44 698 > 698) ns3::olsr::PacketHeader (len: 36 seqNo: 0) ns3::olsr::MessageHeader (type: HELLO TTL: 1 Orig: 10.1.2.2 SeqNo: 0 Validity: 134 Hop count: 0 Size: 16 Interval: 5 (2s) Willingness: DEFAULT) ns3::olsr::MessageHeader (type: MID TTL: 255 Orig: 10.1.2.2 SeqNo: 1 Validity: 231 Hop count: 0 Size: 16 [10.1.6.1])
- 0.0437942 /NodeList/2/DeviceList/2/$ns3::PointToPointNetDevice/TxQueue/Dequeue ns3::PppHeader (Point-to-Point Protocol: IP (0x0021)) ns3::Ipv4Header (tos 0x0 DSCP Default ECN Not-ECT ttl 1 id 0 protocol 17 offset (bytes) 0 flags [none] length: 64 10.1.6.1 > 10.1.6.255) ns3::UdpHeader (length: 44 698 > 698) ns3::olsr::PacketHeader (len: 36 seqNo: 0) ns3::olsr::MessageHeader (type: HELLO TTL: 1 Orig: 10.1.2.2 SeqNo: 0 Validity: 134 Hop count: 0 Size: 16 Interval: 5 (2s) Willingness: DEFAULT) ns3::olsr::MessageHeader (type: MID TTL: 255 Orig: 10.1.2.2 SeqNo: 1 Validity: 231 Hop count: 0 Size: 16 [10.1.6.1])
r 0.0508228 /NodeList/3/DeviceList/3/$ns3::PointToPointNetDevice/MacRx ns3::PppHeader (Point-to-Point Protocol: IP (0x0021)) ns3::Ipv4Header (tos 0x0 DSCP Default ECN Not-ECT ttl 1 id 0 protocol 17 offset (bytes) 0 flags [none] length: 64 10.1.6.1 > 10.1.6.255) ns3::UdpHeader (length: 44 698 > 698) ns3::olsr::PacketHeader (len: 36 seqNo: 0) ns3::olsr::MessageHeader (type: HELLO TTL: 1 Orig: 10.1.2.2 SeqNo: 0 Validity: 134 Hop count: 0 Size: 16 Interval: 5 (2s) Willingness: DEFAULT) ns3::olsr::MessageHeader (type: MID TTL: 255 Orig: 10.1.2.2 SeqNo: 1 Validity: 231 Hop count: 0 Size: 16 [10.1.6.1])
r 0.0533371 /NodeList/0/DeviceList/2/$ns3::PointToPointNetDevice/MacRx ns3::PppHeader (Point-to-Point Protocol: IP (0x0021)) ns3::Ipv4Header (tos 0x0 DSCP Default ECN Not-ECT ttl 1 id 0 protocol 17 offset (bytes) 0 flags [none] length: 64 10.1.2.2 > 10.1.2.255) ns3::UdpHeader (length: 44 698 > 698) ns3::olsr::PacketHeader (len: 36 seqNo: 0) ns3::olsr::MessageHeader (type: HELLO TTL: 1 Orig: 10.1.2.2 SeqNo: 0 Validity: 134 Hop count: 0 Size: 16 Interval: 5 (2s) Willingness: DEFAULT) ns3::olsr::MessageHeader (type: MID TTL: 255 Orig: 10.1.2.2 SeqNo: 1 Validity: 231 Hop count: 0 Size: 16 [10.1.6.1])
+ 0.15669 /NodeList/3/DeviceList/1/$ns3::PointToPointNetDevice/TxQueue/Enqueue ns3::PppHeader (Point-to-Point Protocol: IP (0x0021)) ns3::Ipv4Header (tos 0x0 DSCP Default ECN Not-ECT ttl 1 id 0 protocol 17 offset (bytes) 0 flags [none] length: 72 10.1.3.2 > 10.1.3.255) ns3::UdpHeader (length: 52 698 > 698) ns3::olsr::PacketHeader (len: 44 seqNo: 0) ns3::olsr::MessageHeader (type: HELLO TTL: 1 Orig: 10.1.3.2 SeqNo: 0 Validity: 134 Hop count: 0 Size: 16 Interval: 5 (2s) Willingness: DEFAULT) ns3::olsr::MessageHeader (type: MID TTL: 255 Orig: 10.1.3.2 SeqNo: 1 Validity: 231 Hop count: 0 Size: 24 [10.1.4.2, 10.1.6.2, 10.1.7.1])
- 0.15669 /NodeList/3/DeviceList/1/$ns3::PointToPointNetDevice/TxQueue/Dequeue ns3::PppHeader (Point-to-Point Protocol: IP (0x0021)) ns3::Ipv4Header (tos 0x0 DSCP Default ECN Not-ECT ttl 1 id 0 protocol 17 offset (bytes) 0 flags [none] length: 72 10.1.3.2 > 10.1.3.255) ns3::UdpHeader (length: 52 698 > 698) ns3::olsr::PacketHeader (len: 44 seqNo: 0) ns3::olsr::MessageHeader (type: HELLO TTL: 1 Orig: 10.1.3.2 SeqNo: 0 Validity: 134 Hop count: 0 Size: 16 Interval: 5 (2s) Willingness: DEFAULT) ns3::olsr::MessageHeader (type: MID TTL: 255 Orig: 10.1.3.2 SeqNo: 1 Validity: 231 Hop count: 0 Size: 24 [10.1.4.2, 10.1.6.2, 10.1.7.1])
+ 0.15669 /NodeList/3/DeviceList/2/$ns3::PointToPointNetDevice/TxQueue/Enqueue ns3::PppHeader (Point-to-Point Protocol: IP (0x0021)) ns3::Ipv4Header (tos 0x0 DSCP Default ECN Not-ECT ttl 1 id 0 protocol 17 offset (bytes) 0 flags [none] length: 72 10.1.4.2 > 10.1.4.255) ns3::UdpHeader (length: 52 698 > 698) ns3::olsr::PacketHeader (len: 44 seqNo: 0) ns3::olsr::MessageHeader (type: HELLO TTL: 1 Orig: 10.1.3.2 SeqNo: 0 Validity: 134 Hop count: 0 Size: 16 Interval: 5 (2s) Willingness: DEFAULT) ns3::olsr::MessageHeader (type: MID TTL: 255 Orig: 10.1.3.2 SeqNo: 1 Validity: 231 Hop count: 0 Size: 24 [10.1.4.2, 10.1.6.2, 10.1.7.1])
- 0.15669 /NodeList/3/DeviceList/2/$ns3::PointToPointNetDevice/TxQueue/Dequeue ns3::PppHeader (Point-to-Point Protocol: IP (0x0021)) ns3::Ipv4Header (tos 0x0 DSCP Default ECN Not-ECT ttl 1 id 0 protocol 17 offset (bytes) 0 flags [none] length: 72 10.1.4.2 > 10.1.4.255) ns3::UdpHeader (length: 52 698 > 698) ns3::olsr::PacketHeader (len: 44 seqNo: 0) ns3::olsr::MessageHeader (type: HELLO TTL: 1 Orig: 10.1.3.2 SeqNo: 0 Validity: 134 Hop count: 0 Size: 16 Interval: 5 (2s) Willingness: DEFAULT) ns3::olsr::MessageHeader (type: MID TTL: 255 Orig: 10.1.3.2 SeqNo: 1 Validity: 231 Hop count: 0 Size: 24 [10.1.4.2, 10.1.6.2, 10.1.7.1])
+ 0.15669 /NodeList/3/DeviceList/3/$ns3::PointToPointNetDevice/TxQueue/Enqueue ns3::PppHeader (Point-to-Point Protocol: IP (0x0021)) ns3::Ipv4Header (tos 0x0 DSCP Default ECN Not-ECT ttl 1 id 0 protocol 17 offset (bytes) 0 flags [none] length: 72 10.1.6.2 > 10.1.6.255) ns3::UdpHeader (length: 52 698 > 698) ns3::olsr::PacketHeader (len: 44 seqNo: 0) ns3::olsr::MessageHeader (type: HELLO TTL: 1 Orig: 10.1.3.2 SeqNo: 0 Validity: 134 Hop count: 0 Size: 16 Interval: 5 (2s) Willingness: DEFAULT) ns3::olsr::MessageHeader (type: MID TTL: 255 Orig: 10.1.3.2 SeqNo: 1 Validity: 231 Hop count: 0 Size: 24 [10.1.4.2, 10.1.6.2, 10.1.7.1])
- 0.15669 /NodeList/3/DeviceList/3/$ns3::PointToPointNetDevice/TxQueue/Dequeue ns3::PppHeader (Point-to-Point Protocol: IP (0x0021)) ns3::Ipv4Header (tos 0x0 DSCP Default ECN Not-ECT ttl 1 id 0 protocol 17 offset (bytes) 0 flags [none] length: 72 10.1.6.2 > 10.1.6.255) ns3::UdpHeader (length: 52 698 > 698) ns3::olsr::PacketHeader (len: 44 seqNo: 0) ns3::olsr::MessageHeader (type: HELLO TTL: 1 Orig: 10.1.3.2 SeqNo: 0 Validity: 134 Hop count: 0 Size: 16 Interval: 5 (2s) Willingness: DEFAULT) ns3::olsr::MessageHeader (type: MID TTL: 255 Orig: 10.1.3.2 SeqNo: 1 Validity: 231 Hop count: 0 Size: 24 [10.1.4.2, 10.1.6.2, 10.1.7.1])
+ 0.15669 /NodeList/3/DeviceList/4/$ns3::PointToPointNetDevice/TxQueue/Enqueue ns3::PppHeader (Point-to-Point Protocol: IP (0x0021)) ns3::Ipv4Header (tos 0x0 DSCP Default ECN Not-ECT ttl 1 id 0 protocol 17 offset (bytes) 0 flags [none] length: 72 10.1.7.1 > 10.1.7.255) ns3::UdpHeader (length: 52 698 > 698) ns3::olsr::PacketHeader (len: 44 seqNo: 0) ns3::olsr::MessageHeader (type: HELLO TTL: 1 Orig: 10.1.3.2 SeqNo: 0 Validity: 134 Hop count: 0 Size: 16 Interval: 5 (2s) Willingness: DEFAULT) ns3::olsr::MessageHeader (type: MID TTL: 255 Orig: 10.1.3.2 SeqNo: 1 Validity: 231 Hop count: 0 Size: 24 [10.1.4.2, 10.1.6.2, 10.1.7.1])
- 0.15669 /NodeList/3/DeviceList/4/$ns3::PointToPointNetDevice/TxQueue/Dequeue ns3::PppHeader (Point-to-Point Protocol: IP (0x0021)) ns3::Ipv4Header (tos 0x0 DSCP Default ECN Not-ECT ttl 1 id 0 protocol 17 offset (bytes) 0 flags [none] length: 72 10.1.7.1 > 10.1.7.255) ns3::UdpHeader (length: 52 698 > 698) ns3::olsr::PacketHeader (len: 44 seqNo: 0) ns3::olsr::MessageHeader (type: HELLO TTL: 1 Orig: 10.1.3.2 SeqNo: 0 Validity: 134 Hop count: 0 Size: 16 Interval: 5 (2s) Willingness: DEFAULT) ns3::olsr::MessageHeader (type: MID TTL: 255 Orig: 10.1.3.2 SeqNo: 1 Validity: 231 Hop count: 0 Size: 24 [10.1.4.2, 10.1.6.2, 10.1.7.1])
+ 0.156914 /NodeList/1/DeviceList/1/$ns3::PointToPointNetDevice/TxQueue/Enqueue ns3::PppHeader (Point-to-Point Protocol: IP (0x0021)) ns3::Ipv4Header (tos 0x0 DSCP Default ECN Not-ECT ttl 1 id 0 protocol 17 offset (bytes) 0 flags [none] length: 68 10.1.1.2 > 10.1.1.255) ns3::UdpHeader (length: 48 698 > 698) ns3::olsr::PacketHeader (len: 40 seqNo: 0) ns3::olsr::MessageHeader (type: HELLO TTL: 1 Orig: 10.1.1.2 SeqNo: 0 Validity: 134 Hop count: 0 Size: 16 Interval: 5 (2s) Willingness: DEFAULT) ns3::olsr::MessageHeader (type: MID TTL: 255 Orig: 10.1.1.2 SeqNo: 1 Validity: 231 Hop count: 0 Size: 20 [10.1.4.1, 10.1.5.1])
- 0.156914 /NodeList/1/DeviceList/1/$ns3::PointToPointNetDevice/TxQueue/Dequeue ns3::PppHeader (Point-to-Point Protocol: IP (0x0021)) ns3::Ipv4Header (tos 0x0 DSCP Default ECN Not-ECT ttl 1 id 0 protocol 17 offset (bytes) 0 flags [none] length: 68 10.1.1.2 > 10.1.1.255) ns3::UdpHeader (length: 48 698 > 698) ns3::olsr::PacketHeader (len: 40 seqNo: 0) ns3::olsr::MessageHeader (type: HELLO TTL: 1 Orig: 10.1.1.2 SeqNo: 0 Validity: 134 Hop count: 0 Size: 16 Interval: 5 (2s) Willingness: DEFAULT) ns3::olsr::MessageHeader (type: MID TTL: 255 Orig: 10.1.1.2 SeqNo: 1 Validity: 231 Hop count: 0 Size: 20 [10.1.4.1, 10.1.5.1])
+ 0.156914 /NodeList/1/DeviceList/2/$ns3::PointToPointNetDevice/TxQueue/Enqueue ns3::PppHeader (Point-to-Point Protocol: IP (0x0021)) ns3::Ipv4Header (tos 0x0 DSCP Default ECN Not-ECT ttl 1 id 0 protocol 17 offset (bytes) 0 flags [none] length: 68 10.1.4.1 > 10.1.4.255) ns3::UdpHeader (length: 48 698 > 698) ns3::olsr::PacketHeader (len: 40 seqNo: 0) ns3::olsr::MessageHeader (type: HELLO TTL: 1 Orig: 10.1.1.2 SeqNo: 0 Validity: 134 Hop count: 0 Size: 16 Interval: 5 (2s) Willingness: DEFAULT) ns3::olsr::MessageHeader (type: MID TTL: 255 Orig: 10.1.1.2 SeqNo: 1 Validity: 231 Hop count: 0 Size: 20 [10.1.4.1, 10.1.5.1])
- 0.156914 /NodeList/1/DeviceList/2/$ns3::PointToPointNetDevice/TxQueue/Dequeue ns3::PppHeader (Point-to-Point Protocol: IP (0x0021)) ns3::Ipv4Header (tos 0x0 DSCP Default ECN Not-ECT ttl 1 id 0 protocol 17 offset (bytes) 0 flags [none] length: 68 10.1.4.1 > 10.1.4.255) ns3::UdpHeader (length: 48 698 > 698) ns3::olsr::PacketHeader (len: 40 seqNo: 0) ns3::olsr::MessageHeader (type: HELLO TTL: 1 Orig: 10.1.1.2 SeqNo: 0 Validity: 134 Hop count: 0 Size: 16 Interval: 5 (2s) Willingness: DEFAULT) ns3::olsr::MessageHeader (type: MID TTL: 255 Orig: 10.1.1.2 SeqNo: 1 Validity: 231 Hop count: 0 Size: 20 [10.1.4.1, 10.1.5.1])
+ 0.156914 /NodeList/1/DeviceList/3/$ns3::PointToPointNetDevice/TxQueue/Enqueue ns3::PppHeader (Point-to-Point Protocol: IP (0x0021)) ns3::Ipv4Header (tos 0x0 DSCP Default ECN Not-ECT ttl 1 id 0 protocol 17 offset (bytes) 0 flags [none] length: 68 10.1.5.1 > 10.1.5.255) ns3::UdpHeader (length: 48 698 > 698) ns3::olsr::PacketHeader (len: 40 seqNo: 0) ns3::olsr::MessageHeader (type: HELLO TTL: 1 Orig: 10.1.1.2 SeqNo: 0 Validity: 134 Hop count: 0 Size: 16 Interval: 5 (2s) Willingness: DEFAULT) ns3::olsr::MessageHeader (type: MID TTL: 255 Orig: 10.1.1.2 SeqNo: 1 Validity: 231 Hop count: 0 Size: 20 [10.1.4.1, 10.1.5.1])
- 0.156914 /NodeList/1/DeviceList/3/$ns3::PointToPointNetDevice/TxQueue/Dequeue ns3::PppHeader (Point-to-Point Protocol: IP (0x0021)) ns3::Ipv4Header (tos 0x0 DSCP Default ECN Not-ECT ttl 1 id 0 protocol 17 offset (bytes) 0 flags [none] length: 68 10.1.5.1 > 10.1.5.255) ns3::UdpHeader (length: 48 698 > 698) ns3::olsr::PacketHeader (len: 40 seqNo: 0) ns3::olsr::MessageHeader (type: HELLO TTL: 1 Orig: 10.1.1.2 SeqNo: 0 Validity: 134 Hop count: 0 Size: 16 Interval: 5 (2s) Willingness: DEFAULT) ns3::olsr::MessageHeader (type: MID TTL: 255 Orig: 10.1.1.2 SeqNo: 1 Validity: 231 Hop count: 0 Size: 20 [10.1.4.1, 10.1.5.1])
r 0.161509 /NodeList/0/DeviceList/3/$ns3::PointToPointNetDevice/MacRx ns3::PppHeader (Point-to-Point Protocol: IP (0x0021)) ns3::Ipv4Header (tos 0x0 DSCP Default ECN Not-ECT ttl 1 id 0 protocol 17 offset (bytes) 0 flags [none] length: 72 10.1.3.2 > 10.1.3.255) ns3::UdpHeader (length: 52 698 > 698) ns3::olsr::PacketHeader (len: 44 seqNo: 0) ns3::olsr::MessageHeader (type: HELLO TTL: 1 Orig: 10.1.3.2 SeqNo: 0 Validity: 134 Hop count: 0 Size: 16 Interval: 5 (2s) Willingness: DEFAULT) ns3::olsr::MessageHeader (type: MID TTL: 255 Orig: 10.1.3.2 SeqNo: 1 Validity: 231 Hop count: 0 Size: 24 [10.1.4.2, 10.1.6.2, 10.1.7.1])
r 0.161581 /NodeList/0/DeviceList/1/$ns3::PointToPointNetDevice/MacRx ns3::PppHeader (Point-to-Point Protocol: IP (0x0021)) ns3::Ipv4Header (tos 0x0 DSCP Default ECN Not-ECT ttl 1 id 0 protocol 17 offset (bytes) 0 flags [none] length: 68 10.1.1.2 > 10.1.1.255) ns3::UdpHeader (length: 48 698 > 698) ns3::olsr::PacketHeader (len: 40 seqNo: 0) ns3::olsr::MessageHeader (type: HELLO TTL: 1 Orig: 10.1.1.2 SeqNo: 0 Validity: 134 Hop count: 0 Size: 16 Interval: 5 (2s) Willingness: DEFAULT) ns3::olsr::MessageHeader (type: MID TTL: 255 Orig: 10.1.1.2 SeqNo: 1 Validity: 231 Hop count: 0 Size: 20 [10.1.4.1, 10.1.5.1])
r 0.162914 /NodeList/3/DeviceList/2/$ns3::PointToPointNetDevice/MacRx ns3::PppHeader (Point-to-Point Protocol: IP (0x0021)) ns3::Ipv4Header (tos 0x0 DSCP Default ECN Not-ECT ttl 1 id 0 protocol 17 offset (bytes) 0 flags [none] length: 68 10.1.4.1 > 10.1.4.255) ns3::UdpHeader (length: 48 698 > 698) ns3::olsr::PacketHeader (len: 40 seqNo: 0) ns3::olsr::MessageHeader (type: HELLO TTL: 1 Orig: 10.1.1.2 SeqNo: 0 Validity: 134 Hop count: 0 Size: 16 Interval: 5 (2s) Willingness: DEFAULT) ns3::olsr::MessageHeader (type: MID TTL: 255 Orig: 10.1.1.2 SeqNo: 1 Validity: 231 Hop count: 0 Size: 20 [10.1.4.1, 10.1.5.1])
r 0.162918 /NodeList/1/DeviceList/2/$ns3::PointToPointNetDevice/MacRx ns3::PppHeader (Point-to-Point Protocol: IP (0x0021)) ns3::Ipv4Header (tos 0x0 DSCP Default ECN Not-ECT ttl 1 id 0 protocol 17 offset (bytes) 0 flags [none] length: 72 10.1.4.2 > 10.1.4.255) ns3::UdpHeader (length: 52 698 > 698) ns3::olsr::PacketHeader (len: 44 seqNo: 0) ns3::olsr::MessageHeader (type: HELLO TTL: 1 Orig: 10.1.3.2 SeqNo: 0 Validity: 134 Hop count: 0 Size: 16 Interval: 5 (2s) Willingness: DEFAULT) ns3::olsr::MessageHeader (type: MID TTL: 255 Orig: 10.1.3.2 SeqNo: 1 Validity: 231 Hop count: 0 Size: 24 [10.1.4.2, 10.1.6.2, 10.1.7.1])
r 0.164328 /NodeList/2/DeviceList/2/$ns3::PointToPointNetDevice/MacRx ns3::PppHeader (Point-to-Point Protocol: IP (0x0021)) ns3::Ipv4Header (tos 0x0 DSCP Default ECN Not-ECT ttl 1 id 0 protocol 17 offset (bytes) 0 flags [none] length: 72 10.1.6.2 > 10.1.6.255) ns3::UdpHeader (length: 52 698 > 698) ns3::olsr::PacketHeader (len: 44 seqNo: 0) ns3::olsr::MessageHeader (type: HELLO TTL: 1 Orig: 10.1.3.2 SeqNo: 0 Validity: 134 Hop count: 0 Size: 16 Interval: 5 (2s) Willingness: DEFAULT) ns3::olsr::MessageHeader (type: MID TTL: 255 Orig: 10.1.3.2 SeqNo: 1 Validity: 231 Hop count: 0 Size: 24 [10.1.4.2, 10.1.6.2, 10.1.7.1])
r 0.165581 /NodeList/4/DeviceList/1/$ns3::PointToPointNetDevice/MacRx ns3::PppHeader (Point-to-Point Protocol: IP (0x0021)) ns3::Ipv4Header (tos 0x0 DSCP Default ECN Not-ECT ttl 1 id 0 protocol 17 offset (bytes) 0 flags [none] length: 68 10.1.5.1 > 10.1.5.255) ns3::UdpHeader (length: 48 698 > 698) ns3::olsr::PacketHeader (len: 40 seqNo: 0) ns3::olsr::MessageHeader (type: HELLO TTL: 1 Orig: 10.1.1.2 SeqNo: 0 Validity: 134 Hop count: 0 Size: 16 Interval: 5 (2s) Willingness: DEFAULT) ns3::olsr::MessageHeader (type: MID TTL: 255 Orig: 10.1.1.2 SeqNo: 1 Validity: 231 Hop count: 0 Size: 20 [10.1.4.1, 10.1.5.1])
r 0.168556 /NodeList/4/DeviceList/2/$ns3::PointToPointNetDevice/MacRx ns3::PppHeader (Point-to-Point Protocol: IP (0x0021)) ns3::Ipv4Header (tos 0x0 DSCP Default ECN Not-ECT ttl 1 id 0 protocol 17 offset (bytes) 0 flags [none] length: 72 10.1.7.1 > 10.1.7.255) ns3::UdpHeader (length: 52 698 > 698) ns3::olsr::PacketHeader (len: 44 seqNo: 0) ns3::olsr::MessageHeader (type: HELLO TTL: 1 Orig: 10.1.3.2 SeqNo: 0 Validity: 134 Hop count: 0 Size: 16 Interval: 5 (2s) Willingness: DEFAULT) ns3::olsr::MessageHeader (type: MID TTL: 255 Orig: 10.1.3.2 SeqNo: 1 Validity: 231 Hop count: 0 Size: 24 [10.1.4.2, 10.1.6.2, 10.1.7.1])
+ 0.278942 /NodeList/4/DeviceList/1/$ns3::PointToPointNetDevice/TxQueue/Enqueue ns3::PppHeader (Point-to-Point Protocol: IP (0x0021)) ns3::Ipv4Header (tos 0x0 DSCP Default ECN Not-ECT ttl 1 id 0 protocol 17 offset (bytes) 0 flags [none] length: 64 10.1.5.2 > 10.1.5.255) ns3::UdpHeader (length: 44 698 > 698) ns3::olsr::PacketHeader (len: 36 seqNo: 0) ns3::olsr::MessageHeader (type: HELLO TTL: 1 Orig: 10.1.5.2 SeqNo: 0 Validity: 134 Hop count: 0 Size: 16 Interval: 5 (2s) Willingness: DEFAULT) ns3::olsr::MessageHeader (type: MID TTL: 255 Orig: 10.1.5.2 SeqNo: 1 Validity: 231 Hop count: 0 Size: 16 [10.1.7.2])
- 0.278942 /NodeList/4/DeviceList/1/$ns3::PointToPointNetDevice/TxQueue/Dequeue ns3::PppHeader (Point-to-Point Protocol: IP (0x0021)) ns3::Ipv4Header (tos 0x0 DSCP Default ECN Not-ECT ttl 1 id 0 protocol 17 offset (bytes) 0 flags [none] length: 64 10.1.5.2 > 10.1.5.255) ns3::UdpHeader (length: 44 698 > 698) ns3::olsr::PacketHeader (len: 36 seqNo: 0) ns3::olsr::MessageHeader (type: HELLO TTL: 1 Orig: 10.1.5.2 SeqNo: 0 Validity: 134 Hop count: 0 Size: 16 Interval: 5 (2s) Willingness: DEFAULT) ns3::olsr::MessageHeader (type: MID TTL: 255 Orig: 10.1.5.2 SeqNo: 1 Validity: 231 Hop count: 0 Size: 16 [10.1.7.2])
+ 0.278942 /NodeList/4/DeviceList/2/$ns3::PointToPointNetDevice/TxQueue/Enqueue ns3::PppHeader (Point-to-Point Protocol: IP (0x0021)) ns3::Ipv4Header (tos 0x0 DSCP Default ECN Not-ECT ttl 1 id 0 protocol 17 offset (bytes) 0 flags [none] length: 64 10.1.7.2 > 10.1.7.255) ns3::UdpHeader (length: 44 698 > 698) ns3::olsr::PacketHeader (len: 36 seqNo: 0) ns3::olsr::MessageHeader (type: HELLO TTL: 1 Orig: 10.1.5.2 SeqNo: 0 Validity: 134 Hop count: 0 Size: 16 Interval: 5 (2s) Willingness: DEFAULT) ns3::olsr::MessageHeader (type: MID TTL: 255 Orig: 10.1.5.2 SeqNo: 1 Validity: 231 Hop count: 0 Size: 16 [10.1.7.2])
- 0.278942 /NodeList/4/DeviceList/2/$ns3::PointToPointNetDevice/TxQueue/Dequeue ns3::PppHeader (Point-to-Point Protocol: IP (0x0021)) ns3::Ipv4Header (tos 0x0 DSCP Default ECN Not-ECT ttl 1 id 0 protocol 17 offset (bytes) 0 flags [none] length: 64 10.1.7.2 > 10.1.7.255) ns3::UdpHeader (length: 44 698 > 698) ns3::olsr::PacketHeader (len: 36 seqNo: 0) ns3::olsr::MessageHeader (type: HELLO TTL: 1 Orig: 10.1.5.2 SeqNo: 0 Validity: 134 Hop count: 0 Size: 16 Interval: 5 (2s) Willingness: DEFAULT) ns3::olsr::MessageHeader (type: MID TTL: 255 Orig: 10.1.5.2 SeqNo: 1 Validity: 231 Hop count: 0 Size: 16 [10.1.7.2])
r 0.287228 /NodeList/1/DeviceList/3/$ns3::PointToPointNetDevice/MacRx ns3::PppHeader (Point-to-Point Protocol: IP (0x0021)) ns3::Ipv4Header (tos 0x0 DSCP Default ECN Not-ECT ttl 1 id 0 protocol 17 offset (bytes) 0 flags [none] length: 64 10.1.5.2 > 10.1.5.255) ns3::UdpHeader (length: 44 698 > 698) ns3::olsr::PacketHeader (len: 36 seqNo: 0) ns3::olsr::MessageHeader (type: HELLO TTL: 1 Orig: 10.1.5.2 SeqNo: 0 Validity: 134 Hop count: 0 Size: 16 Interval: 5 (2s) Willingness: DEFAULT) ns3::olsr::MessageHeader (type: MID TTL: 255 Orig: 10.1.5.2 SeqNo: 1 Validity: 231 Hop count: 0 Size: 16 [10.1.7.2])
r 0.289742 /NodeList/3/DeviceList/4/$ns3::PointToPointNetDevice/MacRx ns3::PppHeader (Point-to-Point Protocol: IP (0x0021)) ns3::Ipv4Header (tos 0x0 DSCP Default ECN Not-ECT ttl 1 id 0 protocol 17 offset (bytes) 0 flags [none] length: 64 10.1.7.2 > 10.1.7.255) ns3::UdpHeader (length: 44 698 > 698) ns3::olsr::PacketHeader (len: 36 seqNo: 0) ns3::olsr::MessageHeader (type: HELLO TTL: 1 Orig: 10.1.5.2 SeqNo: 0 Validity: 134 Hop count: 0 Size: 16 Interval: 5 (2s) Willingness: DEFAULT) ns3::olsr::MessageHeader (type: MID TTL: 255 Orig: 10.1.5.2 SeqNo: 1 Validity: 231 Hop count: 0 Size: 16 [10.1.7.2])
+ 0.417575 /NodeList/0/DeviceList/1/$ns3::PointToPointNetDevice/TxQueue/Enqueue ns3::PppHeader (Point-to-Point Protocol: IP (0x0021)) ns3::Ipv4Header (tos 0x0 DSCP Default ECN Not-ECT ttl 1 id 0 protocol 17 offset (bytes) 0 flags [none] length: 68 10.1.1.1 > 10.1.1.255) ns3::UdpHeader (length: 48 698 > 698) ns3::olsr::PacketHeader (len: 40 seqNo: 0) ns3::olsr::MessageHeader (type: HELLO TTL: 1 Orig: 10.1.1.1 SeqNo: 0 Validity: 134 Hop count: 0 Size: 16 Interval: 5 (2s) Willingness: DEFAULT) ns3::olsr::MessageHeader (type: MID TTL: 255 Orig: 10.1.1.1 SeqNo: 1 Validity: 231 Hop count: 0 Size: 20 [10.1.2.1, 10.1.3.1])
- 0.417575 /NodeList/0/DeviceList/1/$ns3::PointToPointNetDevice/TxQueue/Dequeue ns3::PppHeader (Point-to-Point Protocol: IP (0x0021)) ns3::Ipv4Header (tos 0x0 DSCP Default ECN Not-ECT ttl 1 id 0 protocol 17 offset (bytes) 0 flags [none] length: 68 10.1.1.1 > 10.1.1.255) ns3::UdpHeader (length: 48 698 > 698) ns3::olsr::PacketHeader (len: 40 seqNo: 0) ns3::olsr::MessageHeader (type: HELLO TTL: 1 Orig: 10.1.1.1 SeqNo: 0 Validity: 134 Hop count: 0 Size: 16 Interval: 5 (2s) Willingness: DEFAULT) ns3::olsr::MessageHeader (type: MID TTL: 255 Orig: 10.1.1.1 SeqNo: 1 Validity: 231 Hop count: 0 Size: 20 [10.1.2.1, 10.1.3.1])
+ 0.417575 /NodeList/0/DeviceList/2/$ns3::PointToPointNetDevice/TxQueue/Enqueue ns3::PppHeader (Point-to-Point Protocol: IP (0x0021)) ns3::Ipv4Header (tos 0x0 DSCP Default ECN Not-ECT ttl 1 id 0 protocol 17 offset (bytes) 0 flags [none] length: 68 10.1.2.1 > 10.1.2.255) ns3::UdpHeader (length: 48 698 > 698) ns3::olsr::PacketHeader (len: 40 seqNo: 0) ns3::olsr::MessageHeader (type: HELLO TTL: 1 Orig: 10.1.1.1 SeqNo: 0 Validity: 134 Hop count: 0 Size: 16 Interval: 5 (2s) Willingness: DEFAULT) ns3::olsr::MessageHeader (type: MID TTL: 255 Orig: 10.1.1.1 SeqNo: 1 Validity: 231 Hop count: 0 Size: 20 [10.1.2.1, 10.1.3.1])
- 0.417575 /NodeList/0/DeviceList/2/$ns3::PointToPointNetDevice/TxQueue/Dequeue ns3::PppHeader (Point-to-Point Protocol: IP (0x0021)) ns3::Ipv4Header (tos 0x0 DSCP Default ECN Not-ECT ttl 1 id 0 protocol 17 offset (bytes) 0 flags [none] length: 68 10.1.2.1 > 10.1.2.255) ns3::UdpHeader (length: 48 698 > 698) ns3::olsr::PacketHeader (len: 40 seqNo: 0) ns3::olsr::MessageHeader (type: HELLO TTL: 1 Orig: 10.1.1.1 SeqNo: 0 Validity: 134 Hop count: 0 Size: 16 Interval: 5 (2s) Willingness: DEFAULT) ns3::olsr::MessageHeader (type: MID TTL: 255 Orig: 10.1.1.1 SeqNo: 1 Validity: 231 Hop count: 0 Size: 20 [10.1.2.1, 10.1.3.1])
+ 0.417575 /NodeList/0/DeviceList/3/$ns3::PointToPointNetDevice/TxQueue/Enqueue ns3::PppHeader (Point-to-Point Protocol: IP (0x0021)) ns3::Ipv4Header (tos 0x0 DSCP Default ECN Not-ECT ttl 1 id 0 protocol 17 offset (bytes) 0 flags [none] length: 68 10.1.3.1 > 10.1.3.255) ns3::UdpHeader (length: 48 698 > 698) ns3::olsr::PacketHeader (len: 40 seqNo: 0) ns3::olsr::MessageHeader (type: HELLO TTL: 1 Orig: 10.1.1.1 SeqNo: 0 Validity: 134 Hop count: 0 Size: 16 Interval: 5 (2s) Willingness: DEFAULT) ns3::olsr::MessageHeader (type: MID TTL: 255 Orig: 10.1.1.1 SeqNo: 1 Validity: 231 Hop count: 0 Size: 20 [10.1.2.1, 10.1.3.1])
- 0.417575 /NodeList/0/DeviceList/3/$ns3::PointToPointNetDevice/TxQueue/Dequeue ns3::PppHeader (Point-to-Point Protocol: IP (0x0021)) ns3::Ipv4Header (tos 0x0 DSCP Default ECN Not-ECT ttl 1 id 0 protocol 17 offset (bytes) 0 flags [none] length: 68 10.1.3.1 > 10.1.3.255) ns3::UdpHeader (length: 48 698 > 698) ns3::olsr::PacketHeader (len: 40 seqNo: 0) ns3::olsr::MessageHeader (type: HELLO TTL: 1 Orig: 10.1.1.1 SeqNo: 0 Validity: 134 Hop count: 0 Size: 16 Interval: 5 (2s) Willingness: DEFAULT) ns3::olsr::MessageHeader (type: MID TTL: 255 Orig: 10.1.1.1 SeqNo: 1 Validity: 231 Hop count: 0 Size: 20 [10.1.2.1, 10.1.3.1])
r 0.422242 /NodeList/1/DeviceList/1/$ns3::PointToPointNetDevice/MacRx ns3::PppHeader (Point-to-Point Protocol: IP (0x0021)) ns3::Ipv4Header (tos 0x0 DSCP Default ECN Not-ECT ttl 1 id 0 protocol 17 offset (bytes) 0 flags [none] length: 68 10.1.1.1 > 10.1.1.255) ns3::UdpHeader (length: 48 698 > 698) ns3::olsr::PacketHeader (len: 40 seqNo: 0) ns3::olsr::MessageHeader (type: HELLO TTL: 1 Orig: 10.1.1.1 SeqNo: 0 Validity: 134 Hop count: 0 Size: 16 Interval: 5 (2s) Willingness: DEFAULT) ns3::olsr::MessageHeader (type: MID TTL: 255 Orig: 10.1.1.1 SeqNo: 1 Validity: 231 Hop count: 0 Size: 20 [10.1.2.1, 10.1.3.1])
r 0.422242 /NodeList/3/DeviceList/1/$ns3::PointToPointNetDevice/MacRx ns3::PppHeader (Point-to-Point Protocol: IP (0x0021)) ns3::Ipv4Header (tos 0x0 DSCP Default ECN Not-ECT ttl 1 id 0 protocol 17 offset (bytes) 0 flags [none] length: 68 10.1.3.1 > 10.1.3.255) ns3::UdpHeader (length: 48 698 > 698) ns3::olsr::PacketHeader (len: 40 seqNo: 0) ns3::olsr::MessageHeader (type: HELLO TTL: 1 Orig: 10.1.1.1 SeqNo: 0 Validity: 134 Hop count: 0 Size: 16 Interval: 5 (2s) Willingness: DEFAULT) ns3::olsr::MessageHeader (type: MID TTL: 255 Orig: 10.1.1.1 SeqNo: 1 Validity: 231 Hop count: 0 Size: 20 [10.1.2.1, 10.1.3.1])
r 0.427575 /NodeList/2/DeviceList/1/$ns3::PointToPointNetDevice/MacRx ns3::PppHeader (Point-to-Point Protocol: IP (0x0021)) ns3::Ipv4Header (tos 0x0 DSCP Default ECN Not-ECT ttl 1 id 0 protocol 17 offset (bytes) 0 flags [none] length: 68 10.1.2.1 > 10.1.2.255) ns3::UdpHeader (length: 48 698 > 698) ns3::olsr::PacketHeader (len: 40 seqNo: 0) ns3::olsr::MessageHeader (type: HELLO TTL: 1 Orig: 10.1.1.1 SeqNo: 0 Validity: 134 Hop count: 0 Size: 16 Interval: 5 (2s) Willingness: DEFAULT) ns3::olsr::MessageHeader (type: MID TTL: 255 Orig: 10.1.1.1 SeqNo: 1 Validity: 231 Hop count: 0 Size: 20 [10.1.2.1, 10.1.3.1])
+ 2.05292 /NodeList/3/DeviceList/1/$ns3::PointToPointNetDevice/TxQueue/Enqueue ns3::PppHeader (Point-to-Point Protocol: IP (0x0021)) ns3::Ipv4Header (tos 0x0 DSCP Default ECN Not-ECT ttl 1 id 1 protocol 17 offset (bytes) 0 flags [none] length: 80 10.1.3.2 > 10.1.3.255) ns3::UdpHeader (length: 60 698 > 698) ns3::olsr::PacketHeader (len: 52 seqNo: 1) ns3::olsr::MessageHeader (type: HELLO TTL: 1 Orig: 10.1.3.2 SeqNo: 2 Validity: 134 Hop count: 0 Size: 48 Interval: 5 (2s) Willingness: DEFAULT Link code: 1 [10.1.6.1] Link code: 1 [10.1.4.1] Link code: 1 [10.1.7.2] Link code: 1 [10.1.3.1])
- 2.05292 /NodeList/3/DeviceList/1/$ns3::PointToPointNetDevice/TxQueue/Dequeue ns3::PppHeader (Point-to-Point Protocol: IP (0x0021)) ns3::Ipv4Header (tos 0x0 DSCP Default ECN Not-ECT ttl 1 id 1 protocol 17 offset (bytes) 0 flags [none] length: 80 10.1.3.2 > 10.1.3.255) ns3::UdpHeader (length: 60 698 > 698) ns3::olsr::PacketHeader (len: 52 seqNo: 1) ns3::olsr::MessageHeader (type: HELLO TTL: 1 Orig: 10.1.3.2 SeqNo: 2 Validity: 134 Hop count: 0 Size: 48 Interval: 5 (2s) Willingness: DEFAULT Link code: 1 [10.1.6.1] Link code: 1 [10.1.4.1] Link code: 1 [10.1.7.2] Link code: 1 [10.1.3.1])
+ 2.05292 /NodeList/3/DeviceList/2/$ns3::PointToPointNetDevice/TxQueue/Enqueue ns3::PppHeader (Point-to-Point Protocol: IP (0x0021)) ns3::Ipv4Header (tos 0x0 DSCP Default ECN Not-ECT ttl 1 id 1 protocol 17 offset (bytes) 0 flags [none] length: 80 10.1.4.2 > 10.1.4.255) ns3::UdpHeader (length: 60 698 > 698) ns3::olsr::PacketHeader (len: 52 seqNo: 1) ns3::olsr::MessageHeader (type: HELLO TTL: 1 Orig: 10.1.3.2 SeqNo: 2 Validity: 134 Hop count: 0 Size: 48 Interval: 5 (2s) Willingness: DEFAULT Link code: 1 [10.1.6.1] Link code: 1 [10.1.4.1] Link code: 1 [10.1.7.2] Link code: 1 [10.1.3.1])
- 2.05292 /NodeList/3/DeviceList/2/$ns3::PointToPointNetDevice/TxQueue/Dequeue ns3::PppHeader (Point-to-Point Protocol: IP (0x0021)) ns3::Ipv4Header (tos 0x0 DSCP Default ECN Not-ECT ttl 1 id 1 protocol 17 offset (bytes) 0 flags [none] length: 80 10.1.4.2 > 10.1.4.255) ns3::UdpHeader (length: 60 698 > 698) ns3::olsr::PacketHeader (len: 52 seqNo: 1) ns3::olsr::MessageHeader (type: HELLO TTL: 1 Orig: 10.1.3.2 SeqNo: 2 Validity: 134 Hop count: 0 Size: 48 Interval: 5 (2s) Willingness: DEFAULT Link code: 1 [10.1.6.1] Link code: 1 [10.1.4.1] Link code: 1 [10.1.7.2] Link code: 1 [10.1.3.1])
+ 2.05292 /NodeList/3/DeviceList/3/$ns3::PointToPointNetDevice/TxQueue/Enqueue ns3::PppHeader (Point-to-Point Protocol: IP (0x0021)) ns3::Ipv4Header (tos 0x0 DSCP Default ECN Not-ECT ttl 1 id 1 protocol 17 offset (bytes) 0 flags [none] length: 80 10.1.6.2 > 10.1.6.255) ns3::UdpHeader (length: 60 698 > 698) ns3::olsr::PacketHeader (len: 52 seqNo: 1) ns3::olsr::MessageHeader (type: HELLO TTL: 1 Orig: 10.1.3.2 SeqNo: 2 Validity: 134 Hop count: 0 Size: 48 Interval: 5 (2s) Willingness: DEFAULT Link code: 1 [10.1.6.1] Link code: 1 [10.1.4.1] Link code: 1 [10.1.7.2] Link code: 1 [10.1.3.1])
- 2.05292 /NodeList/3/DeviceList/3/$ns3::PointToPointNetDevice/TxQueue/Dequeue ns3::PppHeader (Point-to-Point Protocol: IP (0x0021)) ns3::Ipv4Header (tos 0x0 DSCP Default ECN Not-ECT ttl 1 id 1 protocol 17 offset (bytes) 0 flags [none] length: 80 10.1.6.2 > 10.1.6.255) ns3::UdpHeader (length: 60 698 > 698) ns3::olsr::PacketHeader (len: 52 seqNo: 1) ns3::olsr::MessageHeader (type: HELLO TTL: 1 Orig: 10.1.3.2 SeqNo: 2 Validity: 134 Hop count: 0 Size: 48 Interval: 5 (2s) Willingness: DEFAULT Link code: 1 [10.1.6.1] Link code: 1 [10.1.4.1] Link code: 1 [10.1.7.2] Link code: 1 [10.1.3.1])